                         Program Version 5.0.4 -  RELEASE  -
|  1> !r2scan-3c Opt D4 Freq TightOpt
|  2> %pal
|  3>  nprocs 32
|  4> end
|  5> * xyzfile 0 1 inp.xyz
|  6>
|  7>
|  8>                          ****END OF INPUT****
 Total Charge           Charge          ....    0
 Multiplicity           Mult            ....    1
 Number of Electrons    NEL             ....   50
Dispersion correction           -0.002806162
FINAL SINGLE POINT ENERGY      -344.758466530550
Dispersion correction            ... Starting D4
                    ***********************HURRAY********************

CARTESIAN COORDINATES (ANGSTROEM)
---------------------------------
  C     -2.891372   -0.283408   -0.119711
  C     -2.098286    0.910554    0.311643
  H     -3.562706   -0.590099    0.688807
  H     -2.218891   -1.125888   -0.316849
  H     -3.467301   -0.033391   -1.009689
  O      0.074974   -1.883424    0.430663
  C      0.829763   -1.143339   -0.524831
  H      0.224320   -0.377500   -1.035144
  H      1.182785   -1.855368   -1.275253
  H      1.705226   -0.653901   -0.073646
  O     -2.089348    1.998232   -0.207616
  O     -1.338949    0.634147    1.420850
  H     -0.868905    1.454867    1.639485
  H     -0.245020   -1.257024    1.091560

 Multiplicity           Mult            ....    1
 Number of Electrons    NEL             ....   50
 Basis Dimension        Dim             ....  169

ORBITAL ENERGIES
----------------

  NO   OCC          E(Eh)            E(eV)
   0   2.0000     -19.015924      -517.4496
   1   2.0000     -18.953199      -515.7428
   2   2.0000     -18.948014      -515.6017
   3   2.0000     -10.178028      -276.9582
   4   2.0000     -10.073926      -274.1255
   5   2.0000     -10.050781      -273.4957
   6   2.0000      -1.083063       -29.4716
   7   2.0000      -0.995756       -27.0959
   8   2.0000      -0.979508       -26.6538
   9   2.0000      -0.735174       -20.0051
  10   2.0000      -0.647863       -17.6293
  11   2.0000      -0.589561       -16.0428
  12   2.0000      -0.478922       -13.0321
  13   2.0000      -0.468457       -12.7474
  14   2.0000      -0.454612       -12.3706
  15   2.0000      -0.446796       -12.1579
  16   2.0000      -0.404435       -11.0052
  17   2.0000      -0.392761       -10.6876
  18   2.0000      -0.386743       -10.5238
  19   2.0000      -0.379334       -10.3222
  20   2.0000      -0.368788       -10.0352
  21   2.0000      -0.312615        -8.5067
  22   2.0000      -0.301762        -8.2114
  23   2.0000      -0.258376        -7.0308
  24   2.0000      -0.239941        -6.5291
  25   0.0000      -0.035672        -0.9707
  26   0.0000       0.035219         0.9583
  27   0.0000       0.079353         2.1593
  28   0.0000       0.091793         2.4978
  29   0.0000       0.121574         3.3082

MULLIKEN ATOMIC CHARGES
-----------------------
   0 C :   -0.486838
   1 C :    0.349294
   2 H :    0.171837
   3 H :    0.203277
   4 H :    0.175887
   5 O :   -0.460375
   6 C :   -0.263065
   7 H :    0.127867
   8 H :    0.144046
   9 H :    0.131291
  10 O :   -0.386030
  11 O :   -0.351225
  12 H :    0.329764
  13 H :    0.314270
Sum of atomic charges:   -0.0000000

LOEWDIN ATOMIC CHARGES
----------------------
   0 C :   -0.348417
   1 C :    0.340470
   2 H :    0.183656
   3 H :    0.196184
   4 H :    0.176902
   5 O :   -0.639231
   6 C :   -0.093061
   7 H :    0.148227
   8 H :    0.169001
   9 H :    0.148937
  10 O :   -0.401794
  11 O :   -0.439808
  12 H :    0.293050
  13 H :    0.265885

  Mayer bond orders larger than 0.100000
B(  0-C ,  1-C ) :   0.9874 B(  0-C ,  2-H ) :   0.9418 B(  0-C ,  3-H ) :   0.9230
B(  0-C ,  4-H ) :   0.9764 B(  1-C , 10-O ) :   1.9564 B(  1-C , 11-O ) :   0.9714
B(  5-O ,  6-C ) :   0.9032 B(  5-O , 13-H ) :   0.8684 B(  6-C ,  7-H ) :   0.9612
B(  6-C ,  8-H ) :   0.9788 B(  6-C ,  9-H ) :   0.9678 B( 11-O , 12-H ) :   0.8655

Dispersion correction           -0.002806286
FINAL SINGLE POINT ENERGY      -344.758466581918

DIPOLE MOMENT
-------------
                                X             Y             Z
Electronic contribution:     -2.20030       4.32126       2.35744
Nuclear contribution   :      2.24151      -4.26013      -2.05274
                        -----------------------------------------
Total Dipole Moment    :      0.04121       0.06114       0.30471
                        -----------------------------------------
Magnitude (a.u.)       :      0.31350
Magnitude (Debye)      :      0.79685

Dispersion correction in the Hessian             ... Starting D4

VIBRATIONAL FREQUENCIES
-----------------------

Scaling factor for frequencies =  1.000000000  (already applied!)

   0:         0.00 cm**-1
   1:         0.00 cm**-1
   2:         0.00 cm**-1
   3:         0.00 cm**-1
   4:         0.00 cm**-1
   5:         0.00 cm**-1
   6:        19.73 cm**-1
   7:        48.80 cm**-1
   8:        78.93 cm**-1
   9:        93.96 cm**-1
  10:       119.82 cm**-1
  11:       130.41 cm**-1
  12:       142.81 cm**-1
  13:       433.01 cm**-1
  14:       498.13 cm**-1
  15:       548.80 cm**-1
  16:       588.56 cm**-1
  17:       664.16 cm**-1
  18:       854.11 cm**-1
  19:       990.02 cm**-1
  20:      1042.65 cm**-1
  21:      1060.83 cm**-1
  22:      1094.21 cm**-1
  23:      1172.84 cm**-1
  24:      1198.36 cm**-1
  25:      1322.97 cm**-1
  26:      1395.43 cm**-1
  27:      1402.48 cm**-1
  28:      1462.90 cm**-1
  29:      1466.92 cm**-1
  30:      1477.67 cm**-1
  31:      1487.46 cm**-1
  32:      1505.58 cm**-1
  33:      1824.64 cm**-1
  34:      2960.41 cm**-1
  35:      3022.48 cm**-1
  36:      3029.66 cm**-1
  37:      3103.94 cm**-1
  38:      3106.17 cm**-1
  39:      3168.22 cm**-1
  40:      3741.24 cm**-1
  41:      3794.96 cm**-1

IR SPECTRUM
-----------

 Mode   freq       eps      Int      T**2         TX        TY        TZ
       cm**-1   L/(mol*cm) km/mol    a.u.
----------------------------------------------------------------------------
  6:     19.73   0.000452    2.28  0.007150  (-0.055644  0.013444  0.062229)
  7:     48.80   0.000795    4.02  0.005086  ( 0.052528 -0.010603  0.047058)
  8:     78.93   0.001011    5.11  0.003995  ( 0.058857 -0.022882  0.002772)
  9:     93.96   0.001313    6.63  0.004360  (-0.055682  0.021761 -0.028034)
 10:    119.82   0.000452    2.28  0.001176  ( 0.002934 -0.003898  0.033947)
 11:    130.41   0.000421    2.13  0.001008  (-0.015552  0.007816 -0.026555)
 12:    142.81   0.000321    1.62  0.000701  (-0.025148 -0.001208 -0.008189)
 13:    433.01   0.000531    2.68  0.000382  ( 0.002773 -0.010971  0.015947)
 14:    498.13   0.024666  124.65  0.015452  ( 0.092972 -0.049023  0.066372)
 15:    548.80   0.006816   34.45  0.003876  ( 0.049012 -0.030198 -0.023706)
 16:    588.56   0.007819   39.51  0.004146  ( 0.046269  0.016305  0.041703)
 17:    664.16   0.021158  106.92  0.009941  (-0.079109  0.037291  0.047881)
 18:    854.11   0.001678    8.48  0.000613  (-0.009454  0.016925 -0.015406)
 19:    990.02   0.017203   86.94  0.005423  (-0.042676  0.007261 -0.059571)
 20:   1042.65   0.017353   87.69  0.005194  (-0.043986 -0.036398  0.043978)
 21:   1060.83   0.002376   12.01  0.000699  ( 0.018158 -0.009414 -0.016750)
 22:   1094.21   0.001739    8.79  0.000496  ( 0.001038 -0.018497  0.012354)
 23:   1172.84   0.000040    0.20  0.000011  ( 0.003118  0.000921  0.000427)
 24:   1198.36   0.040705  205.71  0.010600  (-0.066313  0.009251 -0.078211)
 25:   1322.97   0.001878    9.49  0.000443  (-0.013771  0.006608 -0.014484)
 26:   1395.43   0.003316   16.76  0.000741  (-0.012809  0.005910 -0.023291)
 27:   1402.48   0.011133   56.26  0.002477  (-0.037024 -0.031504 -0.010669)
 28:   1462.90   0.003155   15.94  0.000673  (-0.008277  0.023547 -0.007070)
 29:   1466.92   0.001139    5.76  0.000242  (-0.006640 -0.000312  0.014075)
 30:   1477.67   0.001475    7.46  0.000312  ( 0.003880  0.013991 -0.010037)
 31:   1487.46   0.000824    4.16  0.000173  ( 0.006298  0.001889  0.011382)
 32:   1505.58   0.001213    6.13  0.000251  ( 0.007550 -0.011041 -0.008511)
 33:   1824.64   0.060028  303.35  0.010266  (-0.010544  0.088628 -0.047961)
 34:   2960.41   0.010128   51.18  0.001068  (-0.010986 -0.023786  0.019523)
 35:   3022.48   0.010523   53.18  0.001086  ( 0.030501 -0.004515  0.011652)
 36:   3029.66   0.000523    2.64  0.000054  ( 0.006058 -0.004016 -0.001032)
 37:   3103.94   0.004495   22.72  0.000452  ( 0.006811 -0.015147 -0.013271)
 38:   3106.17   0.000592    2.99  0.000059  (-0.004824  0.005797 -0.001615)
 39:   3168.22   0.000242    1.22  0.000024  ( 0.001432  0.002036  0.004200)
 40:   3741.24   0.012353   62.43  0.001030  ( 0.015409  0.023244  0.015896)
 41:   3794.96   0.018689   94.45  0.001537  ( 0.025002 -0.022131 -0.020542)

--------------------------
THERMOCHEMISTRY AT 298.15K
--------------------------

Temperature         ... 298.15 K
Pressure            ... 1.00 atm
Total Mass          ... 92.09 AMU

Throughout the following assumptions are being made:
  (1) The electronic state is orbitally nondegenerate
  (2) There are no thermally accessible electronically excited states
  (3) Hindered rotations indicated by low frequency modes are not
      treated as such but are treated as vibrations and this may
      cause some error
  (4) All equations used are the standard statistical mechanics
      equations for an ideal gas
  (5) All vibrations are strictly harmonic

freq.      19.73  E(vib)   ...       0.56
freq.      48.80  E(vib)   ...       0.53
freq.      78.93  E(vib)   ...       0.49
freq.      93.96  E(vib)   ...       0.47
freq.     119.82  E(vib)   ...       0.44
freq.     130.41  E(vib)   ...       0.43
freq.     142.81  E(vib)   ...       0.41
freq.     433.01  E(vib)   ...       0.17
freq.     498.13  E(vib)   ...       0.14
freq.     548.80  E(vib)   ...       0.12
freq.     588.56  E(vib)   ...       0.10
freq.     664.16  E(vib)   ...       0.08
freq.     854.11  E(vib)   ...       0.04
freq.     990.02  E(vib)   ...       0.02
freq.    1042.65  E(vib)   ...       0.02
freq.    1060.83  E(vib)   ...       0.02
freq.    1094.21  E(vib)   ...       0.02
freq.    1172.84  E(vib)   ...       0.01
freq.    1198.36  E(vib)   ...       0.01
freq.    1322.97  E(vib)   ...       0.01
freq.    1395.43  E(vib)   ...       0.00
freq.    1402.48  E(vib)   ...       0.00
freq.    1462.90  E(vib)   ...       0.00
freq.    1466.92  E(vib)   ...       0.00
freq.    1477.67  E(vib)   ...       0.00
freq.    1487.46  E(vib)   ...       0.00
freq.    1505.58  E(vib)   ...       0.00
freq.    1824.64  E(vib)   ...       0.00
freq.    2960.41  E(vib)   ...       0.00
freq.    3022.48  E(vib)   ...       0.00
freq.    3029.66  E(vib)   ...       0.00
freq.    3103.94  E(vib)   ...       0.00
freq.    3106.17  E(vib)   ...       0.00
freq.    3168.22  E(vib)   ...       0.00
freq.    3741.24  E(vib)   ...       0.00
freq.    3794.96  E(vib)   ...       0.00

------------
INNER ENERGY
------------

The inner energy is: U= E(el) + E(ZPE) + E(vib) + E(rot) + E(trans)
    E(el)   - is the total energy from the electronic structure calculation
              = E(kin-el) + E(nuc-el) + E(el-el) + E(nuc-nuc)
    E(ZPE)  - the the zero temperature vibrational energy from the frequency calculation
    E(vib)  - the the finite temperature correction to E(ZPE) due to population
              of excited vibrational states
    E(rot)  - is the rotational thermal energy
    E(trans)- is the translational thermal energy

Summary of contributions to the inner energy U:
Electronic energy                ...   -344.75846658 Eh
Zero point energy                ...      0.11402973 Eh      71.55 kcal/mol
Thermal vibrational correction   ...      0.00655670 Eh       4.11 kcal/mol
Thermal rotational correction    ...      0.00141627 Eh       0.89 kcal/mol
Thermal translational correction ...      0.00141627 Eh       0.89 kcal/mol
-----------------------------------------------------------------------
Total thermal energy                   -344.63504761 Eh

Summary of corrections to the electronic energy:
(perhaps to be used in another calculation)
Total thermal correction                  0.00938924 Eh       5.89 kcal/mol
Non-thermal (ZPE) correction              0.11402973 Eh      71.55 kcal/mol
-----------------------------------------------------------------------
Total correction                          0.12341897 Eh      77.45 kcal/mol

--------
ENTHALPY
--------

The enthalpy is H = U + kB*T
                kB is Boltzmann's constant
Total free energy                 ...   -344.63504761 Eh
Thermal Enthalpy correction       ...      0.00094421 Eh       0.59 kcal/mol
-----------------------------------------------------------------------
Total Enthalpy                    ...   -344.63410340 Eh

Note: Only C1 symmetry has been detected, increase convergence thresholds
      if your molecule has a higher symmetry. Symmetry factor of 1.0 is
      used for the rotational entropy correction.

Note: Rotational entropy computed according to Herzberg
Infrared and Raman Spectra, Chapter V,1, Van Nostrand Reinhold, 1945
Point Group:  C1, Symmetry Number:   1
Rotational constants in cm-1:     0.168328     0.054204     0.051790

Vibrational entropy computed according to the QRRHO of S. Grimme
Chem.Eur.J. 2012 18 9955

-------
ENTROPY
-------

The entropy contributions are T*S = T*(S(el)+S(vib)+S(rot)+S(trans))
     S(el)   - electronic entropy
     S(vib)  - vibrational entropy
     S(rot)  - rotational entropy
     S(trans)- translational entropy
The entropies will be listed as multiplied by the temperature to get
units of energy

Electronic entropy                ...      0.00000000 Eh      0.00 kcal/mol
Vibrational entropy               ...      0.01270756 Eh      7.97 kcal/mol
Rotational entropy                ...      0.01312580 Eh      8.24 kcal/mol
Translational entropy             ...      0.01875460 Eh     11.77 kcal/mol
-----------------------------------------------------------------------
Final entropy term                ...      0.04458796 Eh     27.98 kcal/mol

In case the symmetry of your molecule has not been determined correctly
or in case you have a reason to use a different symmetry number we print
out the resulting rotational entropy values for sn=1,12 :
 --------------------------------------------------------
|  sn= 1 | S(rot)=       0.01312580 Eh      8.24 kcal/mol|
|  sn= 2 | S(rot)=       0.01247135 Eh      7.83 kcal/mol|
|  sn= 3 | S(rot)=       0.01208851 Eh      7.59 kcal/mol|
|  sn= 4 | S(rot)=       0.01181689 Eh      7.42 kcal/mol|
|  sn= 5 | S(rot)=       0.01160620 Eh      7.28 kcal/mol|
|  sn= 6 | S(rot)=       0.01143406 Eh      7.17 kcal/mol|
|  sn= 7 | S(rot)=       0.01128851 Eh      7.08 kcal/mol|
|  sn= 8 | S(rot)=       0.01116243 Eh      7.00 kcal/mol|
|  sn= 9 | S(rot)=       0.01105123 Eh      6.93 kcal/mol|
|  sn=10 | S(rot)=       0.01095175 Eh      6.87 kcal/mol|
|  sn=11 | S(rot)=       0.01086176 Eh      6.82 kcal/mol|
|  sn=12 | S(rot)=       0.01077960 Eh      6.76 kcal/mol|
 --------------------------------------------------------

-------------------
GIBBS FREE ENERGY
-------------------

The Gibbs free energy is G = H - T*S

Total enthalpy                    ...   -344.63410340 Eh
Total entropy correction          ...     -0.04458796 Eh    -27.98 kcal/mol
-----------------------------------------------------------------------
Final Gibbs free energy         ...   -344.67869135 Eh

For completeness - the Gibbs free energy minus the electronic energy

                             ****ORCA TERMINATED NORMALLY****
TOTAL RUN TIME: 0 days 0 hours 0 minutes 18 seconds 909 msec
