                         Program Version 5.0.3 -  RELEASE  -
|  1> !r2scan-3c Opt D4 Freq TightOpt
|  2> !MORead
|  3> %moinp "inp_previous.gbw"
|  4> %pal
|  5>  nprocs 8
|  6> end
|  7> * xyzfile 0 1 inp.xyz
|  8>
|  9>
| 10>                          ****END OF INPUT****
 Total Charge           Charge          ....    0
 Multiplicity           Mult            ....    1
 Number of Electrons    NEL             ....   50
Dispersion correction           -0.002715226
FINAL SINGLE POINT ENERGY      -344.767596949424
Dispersion correction            ... Starting D4
                    ***********************HURRAY********************

CARTESIAN COORDINATES (ANGSTROEM)
---------------------------------
  C     -3.911460   -0.281863   -0.076563
  C     -2.548938    0.308723    0.148242
  H     -4.033179   -1.179561    0.536735
  H     -4.016255   -0.585938   -1.122298
  H     -4.674271    0.452889    0.178133
  O     -1.581910   -0.574186   -0.150307
  C     -0.222480   -0.107863    0.029300
  H     -0.027371    0.758590   -0.607661
  H      0.408965   -0.948076   -0.258537
  H     -0.046765    0.168524    1.072038
  O     -2.340415    1.437021    0.547566
  O      0.136211    2.918084    1.105097
  H     -0.062679    3.805238    1.415997
  H     -0.732543    2.515017    0.953859

 Multiplicity           Mult            ....    1
 Number of Electrons    NEL             ....   50
 Basis Dimension        Dim             ....  169

ORBITAL ENERGIES
----------------

  NO   OCC          E(Eh)            E(eV)
   0   2.0000     -19.009777      -517.2823
   1   2.0000     -18.951379      -515.6932
   2   2.0000     -18.922955      -514.9198
   3   2.0000     -10.172241      -276.8007
   4   2.0000     -10.088338      -274.5176
   5   2.0000     -10.051084      -273.5039
   6   2.0000      -1.078833       -29.3565
   7   2.0000      -0.992544       -27.0085
   8   2.0000      -0.946392       -25.7526
   9   2.0000      -0.744279       -20.2529
  10   2.0000      -0.675322       -18.3764
  11   2.0000      -0.542293       -14.7565
  12   2.0000      -0.487468       -13.2647
  13   2.0000      -0.464089       -12.6285
  14   2.0000      -0.462664       -12.5897
  15   2.0000      -0.450414       -12.2564
  16   2.0000      -0.406426       -11.0594
  17   2.0000      -0.395548       -10.7634
  18   2.0000      -0.378544       -10.3007
  19   2.0000      -0.350265        -9.5312
  20   2.0000      -0.340696        -9.2708
  21   2.0000      -0.322867        -8.7857
  22   2.0000      -0.287539        -7.8243
  23   2.0000      -0.257813        -7.0155
  24   2.0000      -0.249031        -6.7765
  25   0.0000      -0.030890        -0.8405
  26   0.0000       0.058890         1.6025
  27   0.0000       0.079923         2.1748
  28   0.0000       0.110887         3.0174
  29   0.0000       0.124380         3.3845

MULLIKEN ATOMIC CHARGES
-----------------------
   0 C :   -0.506055
   1 C :    0.417582
   2 H :    0.171677
   3 H :    0.171773
   4 H :    0.177702
   5 O :   -0.180861
   6 C :   -0.301318
   7 H :    0.173357
   8 H :    0.153491
   9 H :    0.173400
  10 O :   -0.434472
  11 O :   -0.662993
  12 H :    0.291720
  13 H :    0.354999
Sum of atomic charges:   -0.0000000

LOEWDIN ATOMIC CHARGES
----------------------
   0 C :   -0.335395
   1 C :    0.360686
   2 H :    0.181586
   3 H :    0.181671
   4 H :    0.175777
   5 O :   -0.594056
   6 C :   -0.045423
   7 H :    0.183107
   8 H :    0.177132
   9 H :    0.183145
  10 O :   -0.454006
  11 O :   -0.531793
  12 H :    0.249234
  13 H :    0.268336

  Mayer bond orders larger than 0.100000
B(  0-C ,  1-C ) :   0.9665 B(  0-C ,  2-H ) :   0.9474 B(  0-C ,  3-H ) :   0.9469
B(  0-C ,  4-H ) :   0.9867 B(  1-C ,  5-O ) :   1.0754 B(  1-C , 10-O ) :   1.7959
B(  5-O ,  6-C ) :   0.8547 B(  6-C ,  7-H ) :   0.9542 B(  6-C ,  8-H ) :   0.9662
B(  6-C ,  9-H ) :   0.9542 B( 11-O , 12-H ) :   0.9177 B( 11-O , 13-H ) :   0.8304

Dispersion correction           -0.002715211
FINAL SINGLE POINT ENERGY      -344.767596961431

DIPOLE MOMENT
-------------
                                X             Y             Z
Electronic contribution:     -0.83845      -0.06366      -0.03363
Nuclear contribution   :      0.21056      -0.55700      -0.19263
                        -----------------------------------------
Total Dipole Moment    :     -0.62789      -0.62066      -0.22626
                        -----------------------------------------
Magnitude (a.u.)       :      0.91140
Magnitude (Debye)      :      2.31660

Dispersion correction in the Hessian             ... Starting D4

VIBRATIONAL FREQUENCIES
-----------------------

Scaling factor for frequencies =  1.000000000  (already applied!)

   0:         0.00 cm**-1
   1:         0.00 cm**-1
   2:         0.00 cm**-1
   3:         0.00 cm**-1
   4:         0.00 cm**-1
   5:         0.00 cm**-1
   6:       -48.01 cm**-1 ***imaginary mode***
   7:        21.06 cm**-1
   8:        91.76 cm**-1
   9:        95.46 cm**-1
  10:       141.17 cm**-1
  11:       181.81 cm**-1
  12:       203.86 cm**-1
  13:       292.70 cm**-1
  14:       342.08 cm**-1
  15:       436.31 cm**-1
  16:       516.75 cm**-1
  17:       604.20 cm**-1
  18:       646.73 cm**-1
  19:       862.61 cm**-1
  20:       981.66 cm**-1
  21:      1055.98 cm**-1
  22:      1058.37 cm**-1
  23:      1160.29 cm**-1
  24:      1211.72 cm**-1
  25:      1279.17 cm**-1
  26:      1387.60 cm**-1
  27:      1460.19 cm**-1
  28:      1467.04 cm**-1
  29:      1467.17 cm**-1
  30:      1482.13 cm**-1
  31:      1487.27 cm**-1
  32:      1669.83 cm**-1
  33:      1769.43 cm**-1
  34:      3038.65 cm**-1
  35:      3040.91 cm**-1
  36:      3119.19 cm**-1
  37:      3133.80 cm**-1
  38:      3161.29 cm**-1
  39:      3167.77 cm**-1
  40:      3706.55 cm**-1
  41:      3902.03 cm**-1

IR SPECTRUM
-----------

 Mode   freq       eps      Int      T**2         TX        TY        TZ
       cm**-1   L/(mol*cm) km/mol    a.u.
----------------------------------------------------------------------------
  7:     21.06   0.000044    0.22  0.000647  (-0.000052 -0.008425  0.023992)
  8:     91.76   0.001902    9.61  0.006468  (-0.053372 -0.054921 -0.024570)
  9:     95.46   0.021371  108.00  0.069862  ( 0.003755  0.089154 -0.248797)
 10:    141.17   0.000638    3.22  0.001411  (-0.017678 -0.029368 -0.015350)
 11:    181.81   0.001445    7.30  0.002479  (-0.000760 -0.016713  0.046900)
 12:    203.86   0.000646    3.26  0.000989  ( 0.000712  0.011299 -0.029339)
 13:    292.70   0.002772   14.01  0.002956  ( 0.028557 -0.043755 -0.015021)
 14:    342.08   0.026024  131.51  0.023740  (-0.087429 -0.119120 -0.043667)
 15:    436.31   0.001483    7.50  0.001061  ( 0.030689  0.010183  0.003913)
 16:    516.75   0.012513   63.24  0.007557  (-0.000903 -0.029015  0.081940)
 17:    604.20   0.001686    8.52  0.000871  ( 0.000283  0.009885 -0.027806)
 18:    646.73   0.000655    3.31  0.000316  (-0.016954 -0.004996 -0.001934)
 19:    862.61   0.002648   13.38  0.000958  (-0.001913 -0.029137 -0.010264)
 20:    981.66   0.000622    3.14  0.000198  (-0.011603 -0.007488 -0.002668)
 21:   1055.98   0.001381    6.98  0.000408  (-0.000148  0.006588 -0.019096)
 22:   1058.37   0.012874   65.06  0.003796  ( 0.061473 -0.004043 -0.000755)
 23:   1160.29   0.000089    0.45  0.000024  ( 0.000078  0.001564 -0.004637)
 24:   1211.72   0.000048    0.24  0.000012  (-0.001003 -0.003179 -0.001118)
 25:   1279.17   0.053161  268.65  0.012969  ( 0.104880 -0.042253 -0.013553)
 26:   1387.60   0.010960   55.39  0.002465  (-0.049569 -0.002328 -0.001505)
 27:   1460.19   0.003726   18.83  0.000796  (-0.001779  0.026586  0.009286)
 28:   1467.04   0.003519   17.78  0.000749  (-0.020621 -0.006625 -0.016715)
 29:   1467.17   0.003180   16.07  0.000676  ( 0.018726  0.014579 -0.010636)
 30:   1482.13   0.002939   14.85  0.000619  ( 0.000339  0.008157 -0.023496)
 31:   1487.27   0.004935   24.94  0.001036  (-0.021377  0.022816  0.007618)
 32:   1669.83   0.013849   69.99  0.002588  ( 0.032463 -0.037024 -0.012790)
 33:   1769.43   0.061415  310.37  0.010831  (-0.008082 -0.097835 -0.034561)
 34:   3038.65   0.003048   15.40  0.000313  (-0.017641  0.001310  0.000258)
 35:   3040.91   0.000509    2.57  0.000052  ( 0.006735  0.002433  0.000972)
 36:   3119.19   0.000222    1.12  0.000022  ( 0.000131  0.001674 -0.004400)
 37:   3133.80   0.001404    7.09  0.000140  ( 0.000113  0.004046 -0.011109)
 38:   3161.29   0.001586    8.01  0.000157  ( 0.007063 -0.009749 -0.003407)
 39:   3167.77   0.000569    2.88  0.000056  ( 0.006297 -0.003816 -0.001352)
 40:   3706.55   0.063584  321.33  0.005353  ( 0.051291  0.048978  0.017992)
 41:   3902.03   0.020505  103.62  0.001640  (-0.017485 -0.034364 -0.012379)

--------------------------
THERMOCHEMISTRY AT 298.15K
--------------------------

Temperature         ... 298.15 K
Pressure            ... 1.00 atm
Total Mass          ... 92.09 AMU

Throughout the following assumptions are being made:
  (1) The electronic state is orbitally nondegenerate
  (2) There are no thermally accessible electronically excited states
  (3) Hindered rotations indicated by low frequency modes are not
      treated as such but are treated as vibrations and this may
      cause some error
  (4) All equations used are the standard statistical mechanics
      equations for an ideal gas
  (5) All vibrations are strictly harmonic

freq.      21.06  E(vib)   ...       0.56
freq.      91.76  E(vib)   ...       0.47
freq.      95.46  E(vib)   ...       0.47
freq.     141.17  E(vib)   ...       0.41
freq.     181.81  E(vib)   ...       0.37
freq.     203.86  E(vib)   ...       0.35
freq.     292.70  E(vib)   ...       0.27
freq.     342.08  E(vib)   ...       0.23
freq.     436.31  E(vib)   ...       0.17
freq.     516.75  E(vib)   ...       0.13
freq.     604.20  E(vib)   ...       0.10
freq.     646.73  E(vib)   ...       0.09
freq.     862.61  E(vib)   ...       0.04
freq.     981.66  E(vib)   ...       0.02
freq.    1055.98  E(vib)   ...       0.02
freq.    1058.37  E(vib)   ...       0.02
freq.    1160.29  E(vib)   ...       0.01
freq.    1211.72  E(vib)   ...       0.01
freq.    1279.17  E(vib)   ...       0.01
freq.    1387.60  E(vib)   ...       0.00
freq.    1460.19  E(vib)   ...       0.00
freq.    1467.04  E(vib)   ...       0.00
freq.    1467.17  E(vib)   ...       0.00
freq.    1482.13  E(vib)   ...       0.00
freq.    1487.27  E(vib)   ...       0.00
freq.    1669.83  E(vib)   ...       0.00
freq.    1769.43  E(vib)   ...       0.00
freq.    3038.65  E(vib)   ...       0.00
freq.    3040.91  E(vib)   ...       0.00
freq.    3119.19  E(vib)   ...       0.00
freq.    3133.80  E(vib)   ...       0.00
freq.    3161.29  E(vib)   ...       0.00
freq.    3167.77  E(vib)   ...       0.00
freq.    3706.55  E(vib)   ...       0.00
freq.    3902.03  E(vib)   ...       0.00

------------
INNER ENERGY
------------

The inner energy is: U= E(el) + E(ZPE) + E(vib) + E(rot) + E(trans)
    E(el)   - is the total energy from the electronic structure calculation
              = E(kin-el) + E(nuc-el) + E(el-el) + E(nuc-nuc)
    E(ZPE)  - the the zero temperature vibrational energy from the frequency calculation
    E(vib)  - the the finite temperature correction to E(ZPE) due to population
              of excited vibrational states
    E(rot)  - is the rotational thermal energy
    E(trans)- is the translational thermal energy

Summary of contributions to the inner energy U:
Electronic energy                ...   -344.76759696 Eh
Zero point energy                ...      0.11309858 Eh      70.97 kcal/mol
Thermal vibrational correction   ...      0.00602317 Eh       3.78 kcal/mol
Thermal rotational correction    ...      0.00141627 Eh       0.89 kcal/mol
Thermal translational correction ...      0.00141627 Eh       0.89 kcal/mol
-----------------------------------------------------------------------
Total thermal energy                   -344.64564267 Eh

Summary of corrections to the electronic energy:
(perhaps to be used in another calculation)
Total thermal correction                  0.00885571 Eh       5.56 kcal/mol
Non-thermal (ZPE) correction              0.11309858 Eh      70.97 kcal/mol
-----------------------------------------------------------------------
Total correction                          0.12195430 Eh      76.53 kcal/mol

--------
ENTHALPY
--------

The enthalpy is H = U + kB*T
                kB is Boltzmann's constant
Total free energy                 ...   -344.64564267 Eh
Thermal Enthalpy correction       ...      0.00094421 Eh       0.59 kcal/mol
-----------------------------------------------------------------------
Total Enthalpy                    ...   -344.64469846 Eh

Note: Only C1 symmetry has been detected, increase convergence thresholds
      if your molecule has a higher symmetry. Symmetry factor of 1.0 is
      used for the rotational entropy correction.

Note: Rotational entropy computed according to Herzberg
Infrared and Raman Spectra, Chapter V,1, Van Nostrand Reinhold, 1945
Point Group:  C1, Symmetry Number:   1
Rotational constants in cm-1:     0.173191     0.061837     0.046360

Vibrational entropy computed according to the QRRHO of S. Grimme
Chem.Eur.J. 2012 18 9955

-------
ENTROPY
-------

The entropy contributions are T*S = T*(S(el)+S(vib)+S(rot)+S(trans))
     S(el)   - electronic entropy
     S(vib)  - vibrational entropy
     S(rot)  - rotational entropy
     S(trans)- translational entropy
The entropies will be listed as multiplied by the temperature to get
units of energy

Electronic entropy                ...      0.00000000 Eh      0.00 kcal/mol
Vibrational entropy               ...      0.01118110 Eh      7.02 kcal/mol
Rotational entropy                ...      0.01310244 Eh      8.22 kcal/mol
Translational entropy             ...      0.01875460 Eh     11.77 kcal/mol
-----------------------------------------------------------------------
Final entropy term                ...      0.04303814 Eh     27.01 kcal/mol

In case the symmetry of your molecule has not been determined correctly
or in case you have a reason to use a different symmetry number we print
out the resulting rotational entropy values for sn=1,12 :
 --------------------------------------------------------
|  sn= 1 | S(rot)=       0.01310244 Eh      8.22 kcal/mol|
|  sn= 2 | S(rot)=       0.01244799 Eh      7.81 kcal/mol|
|  sn= 3 | S(rot)=       0.01206515 Eh      7.57 kcal/mol|
|  sn= 4 | S(rot)=       0.01179353 Eh      7.40 kcal/mol|
|  sn= 5 | S(rot)=       0.01158284 Eh      7.27 kcal/mol|
|  sn= 6 | S(rot)=       0.01141070 Eh      7.16 kcal/mol|
|  sn= 7 | S(rot)=       0.01126515 Eh      7.07 kcal/mol|
|  sn= 8 | S(rot)=       0.01113907 Eh      6.99 kcal/mol|
|  sn= 9 | S(rot)=       0.01102787 Eh      6.92 kcal/mol|
|  sn=10 | S(rot)=       0.01092839 Eh      6.86 kcal/mol|
|  sn=11 | S(rot)=       0.01083840 Eh      6.80 kcal/mol|
|  sn=12 | S(rot)=       0.01075624 Eh      6.75 kcal/mol|
 --------------------------------------------------------

-------------------
GIBBS FREE ENERGY
-------------------

The Gibbs free energy is G = H - T*S

Total enthalpy                    ...   -344.64469846 Eh
Total entropy correction          ...     -0.04303814 Eh    -27.01 kcal/mol
-----------------------------------------------------------------------
Final Gibbs free energy         ...   -344.68773659 Eh

For completeness - the Gibbs free energy minus the electronic energy
G-E(el)                           ...      0.07986037 Eh     50.11 kcal/mol

                             ****ORCA TERMINATED NORMALLY****
TOTAL RUN TIME: 0 days 0 hours 2 minutes 23 seconds 889 msec
