                         Program Version 5.0.3 -  RELEASE  -
|  1> !r2scan-3c Opt D4 Freq
|  2> %pal
|  3>  nprocs 8
|  4> end
|  5> * xyzfile 0 1 inp.xyz
|  6>
|  7>
|  8>                          ****END OF INPUT****
 Total Charge           Charge          ....    0
 Multiplicity           Mult            ....    1
 Number of Electrons    NEL             ....   50
Dispersion correction           -0.002715261
FINAL SINGLE POINT ENERGY      -344.767596931000
Dispersion correction            ... Starting D4
                    ***********************HURRAY********************

CARTESIAN COORDINATES (ANGSTROEM)
---------------------------------
  C     -3.911452   -0.281840   -0.076558
  C     -2.548917    0.308708    0.148238
  H     -4.033215   -1.179483    0.536819
  H     -4.016226   -0.586029   -1.122262
  H     -4.674226    0.452977    0.178060
  O     -1.581893   -0.574187   -0.150356
  C     -0.222460   -0.107868    0.029276
  H     -0.027366    0.758623   -0.607641
  H      0.408984   -0.948076   -0.258568
  H     -0.046781    0.168543    1.072015
  O     -2.340399    1.436996    0.547610
  O      0.136152    2.918053    1.105091
  H     -0.062691    3.805207    1.416004
  H     -0.732601    2.514976    0.953873

 Multiplicity           Mult            ....    1
 Number of Electrons    NEL             ....   50
 Basis Dimension        Dim             ....  169

ORBITAL ENERGIES
----------------

  NO   OCC          E(Eh)            E(eV)
   0   2.0000     -19.009781      -517.2824
   1   2.0000     -18.951365      -515.6929
   2   2.0000     -18.922961      -514.9200
   3   2.0000     -10.172246      -276.8009
   4   2.0000     -10.088339      -274.5177
   5   2.0000     -10.051086      -273.5040
   6   2.0000      -1.078833       -29.3565
   7   2.0000      -0.992541       -27.0084
   8   2.0000      -0.946393       -25.7527
   9   2.0000      -0.744281       -20.2529
  10   2.0000      -0.675323       -18.3765
  11   2.0000      -0.542294       -14.7566
  12   2.0000      -0.487473       -13.2648
  13   2.0000      -0.464091       -12.6286
  14   2.0000      -0.462663       -12.5897
  15   2.0000      -0.450414       -12.2564
  16   2.0000      -0.406424       -11.0594
  17   2.0000      -0.395550       -10.7635
  18   2.0000      -0.378547       -10.3008
  19   2.0000      -0.350260        -9.5311
  20   2.0000      -0.340698        -9.2709
  21   2.0000      -0.322864        -8.7856
  22   2.0000      -0.287538        -7.8243
  23   2.0000      -0.257809        -7.0153
  24   2.0000      -0.249033        -6.7765
  25   0.0000      -0.030890        -0.8406
  26   0.0000       0.058888         1.6024
  27   0.0000       0.079924         2.1748
  28   0.0000       0.110887         3.0174
  29   0.0000       0.124381         3.3846

MULLIKEN ATOMIC CHARGES
-----------------------
   0 C :   -0.506056
   1 C :    0.417599
   2 H :    0.171677
   3 H :    0.171772
   4 H :    0.177703
   5 O :   -0.180863
   6 C :   -0.301319
   7 H :    0.173360
   8 H :    0.153493
   9 H :    0.173401
  10 O :   -0.434494
  11 O :   -0.662989
  12 H :    0.291714
  13 H :    0.355001
Sum of atomic charges:   -0.0000000

LOEWDIN ATOMIC CHARGES
----------------------
   0 C :   -0.335393
   1 C :    0.360696
   2 H :    0.181587
   3 H :    0.181670
   4 H :    0.175779
   5 O :   -0.594050
   6 C :   -0.045421
   7 H :    0.183108
   8 H :    0.177133
   9 H :    0.183146
  10 O :   -0.454030
  11 O :   -0.531790
  12 H :    0.249230
  13 H :    0.268334

  Mayer bond orders larger than 0.100000
B(  0-C ,  1-C ) :   0.9665 B(  0-C ,  2-H ) :   0.9474 B(  0-C ,  3-H ) :   0.9469
B(  0-C ,  4-H ) :   0.9867 B(  1-C ,  5-O ) :   1.0754 B(  1-C , 10-O ) :   1.7959
B(  5-O ,  6-C ) :   0.8547 B(  6-C ,  7-H ) :   0.9542 B(  6-C ,  8-H ) :   0.9662
B(  6-C ,  9-H ) :   0.9542 B( 11-O , 12-H ) :   0.9177 B( 11-O , 13-H ) :   0.8304

Dispersion correction           -0.002715226
FINAL SINGLE POINT ENERGY      -344.767596953145

DIPOLE MOMENT
-------------
                                X             Y             Z
Electronic contribution:     -0.83839      -0.06382      -0.03370
Nuclear contribution   :      0.21053      -0.55688      -0.19257
                        -----------------------------------------
Total Dipole Moment    :     -0.62786      -0.62070      -0.22627
                        -----------------------------------------
Magnitude (a.u.)       :      0.91141
Magnitude (Debye)      :      2.31662

Dispersion correction in the Hessian             ... Starting D4

VIBRATIONAL FREQUENCIES
-----------------------

Scaling factor for frequencies =  1.000000000  (already applied!)

   0:         0.00 cm**-1
   1:         0.00 cm**-1
   2:         0.00 cm**-1
   3:         0.00 cm**-1
   4:         0.00 cm**-1
   5:         0.00 cm**-1
   6:       -47.91 cm**-1 ***imaginary mode***
   7:        21.03 cm**-1
   8:        91.76 cm**-1
   9:        95.21 cm**-1
  10:       141.19 cm**-1
  11:       181.80 cm**-1
  12:       203.88 cm**-1
  13:       292.71 cm**-1
  14:       342.07 cm**-1
  15:       436.31 cm**-1
  16:       516.79 cm**-1
  17:       604.19 cm**-1
  18:       646.73 cm**-1
  19:       862.61 cm**-1
  20:       981.66 cm**-1
  21:      1055.98 cm**-1
  22:      1058.37 cm**-1
  23:      1160.28 cm**-1
  24:      1211.73 cm**-1
  25:      1279.18 cm**-1
  26:      1387.60 cm**-1
  27:      1460.20 cm**-1
  28:      1467.04 cm**-1
  29:      1467.17 cm**-1
  30:      1482.11 cm**-1
  31:      1487.28 cm**-1
  32:      1669.80 cm**-1
  33:      1769.39 cm**-1
  34:      3038.65 cm**-1
  35:      3040.90 cm**-1
  36:      3119.17 cm**-1
  37:      3133.78 cm**-1
  38:      3161.32 cm**-1
  39:      3167.79 cm**-1
  40:      3706.53 cm**-1
  41:      3902.09 cm**-1

IR SPECTRUM
-----------

 Mode   freq       eps      Int      T**2         TX        TY        TZ
       cm**-1   L/(mol*cm) km/mol    a.u.
----------------------------------------------------------------------------
  7:     21.03   0.000046    0.23  0.000683  (-0.000058 -0.008658  0.024661)
  8:     91.76   0.001903    9.62  0.006473  (-0.053372 -0.054805 -0.024909)
  9:     95.21   0.021380  108.05  0.070074  ( 0.003820  0.089359 -0.249147)
 10:    141.19   0.000638    3.23  0.001411  (-0.017682 -0.029377 -0.015340)
 11:    181.80   0.001444    7.30  0.002478  (-0.000759 -0.016714  0.046889)
 12:    203.88   0.000645    3.26  0.000987  ( 0.000715  0.011288 -0.029309)
 13:    292.71   0.002773   14.01  0.002956  ( 0.028552 -0.043762 -0.015023)
 14:    342.07   0.026022  131.51  0.023740  (-0.087435 -0.119116 -0.043662)
 15:    436.31   0.001483    7.50  0.001061  ( 0.030691  0.010186  0.003915)
 16:    516.79   0.012504   63.19  0.007551  (-0.000898 -0.029001  0.081907)
 17:    604.19   0.001687    8.52  0.000871  ( 0.000285  0.009887 -0.027809)
 18:    646.73   0.000655    3.31  0.000316  (-0.016954 -0.004996 -0.001937)
 19:    862.61   0.002648   13.38  0.000958  (-0.001913 -0.029136 -0.010265)
 20:    981.66   0.000623    3.15  0.000198  (-0.011612 -0.007487 -0.002670)
 21:   1055.98   0.001381    6.98  0.000408  (-0.000170  0.006591 -0.019094)
 22:   1058.37   0.012874   65.06  0.003796  ( 0.061475 -0.004043 -0.000765)
 23:   1160.28   0.000089    0.45  0.000024  ( 0.000077  0.001565 -0.004636)
 24:   1211.73   0.000048    0.24  0.000012  (-0.001003 -0.003178 -0.001118)
 25:   1279.18   0.053157  268.63  0.012968  ( 0.104875 -0.042253 -0.013556)
 26:   1387.60   0.010961   55.39  0.002465  (-0.049572 -0.002325 -0.001501)
 27:   1460.20   0.003726   18.83  0.000796  (-0.001779  0.026587  0.009289)
 28:   1467.04   0.003471   17.54  0.000738  (-0.020304 -0.006371 -0.016894)
 29:   1467.17   0.003230   16.32  0.000687  ( 0.019079  0.014693 -0.010345)
 30:   1482.11   0.002939   14.85  0.000619  ( 0.000338  0.008161 -0.023498)
 31:   1487.28   0.004935   24.94  0.001036  (-0.021373  0.022818  0.007622)
 32:   1669.80   0.013852   70.00  0.002589  ( 0.032461 -0.037031 -0.012794)
 33:   1769.39   0.061414  310.36  0.010831  (-0.008084 -0.097834 -0.034564)
 34:   3038.65   0.003046   15.39  0.000313  (-0.017635  0.001311  0.000259)
 35:   3040.90   0.000510    2.58  0.000052  ( 0.006746  0.002433  0.000972)
 36:   3119.17   0.000222    1.12  0.000022  ( 0.000129  0.001674 -0.004400)
 37:   3133.78   0.001404    7.09  0.000140  ( 0.000113  0.004046 -0.011109)
 38:   3161.32   0.001585    8.01  0.000156  ( 0.007063 -0.009747 -0.003406)
 39:   3167.79   0.000569    2.87  0.000056  ( 0.006297 -0.003815 -0.001353)
 40:   3706.53   0.063603  321.42  0.005355  ( 0.051298  0.048986  0.017994)
 41:   3902.09   0.020505  103.63  0.001640  (-0.017485 -0.034364 -0.012379)

--------------------------
THERMOCHEMISTRY AT 298.15K
--------------------------

Temperature         ... 298.15 K
Pressure            ... 1.00 atm
Total Mass          ... 92.09 AMU

Throughout the following assumptions are being made:
  (1) The electronic state is orbitally nondegenerate
  (2) There are no thermally accessible electronically excited states
  (3) Hindered rotations indicated by low frequency modes are not
      treated as such but are treated as vibrations and this may
      cause some error
  (4) All equations used are the standard statistical mechanics
      equations for an ideal gas
  (5) All vibrations are strictly harmonic

freq.      21.03  E(vib)   ...       0.56
freq.      91.76  E(vib)   ...       0.47
freq.      95.21  E(vib)   ...       0.47
freq.     141.19  E(vib)   ...       0.41
freq.     181.80  E(vib)   ...       0.37
freq.     203.88  E(vib)   ...       0.35
freq.     292.71  E(vib)   ...       0.27
freq.     342.07  E(vib)   ...       0.23
freq.     436.31  E(vib)   ...       0.17
freq.     516.79  E(vib)   ...       0.13
freq.     604.19  E(vib)   ...       0.10
freq.     646.73  E(vib)   ...       0.09
freq.     862.61  E(vib)   ...       0.04
freq.     981.66  E(vib)   ...       0.02
freq.    1055.98  E(vib)   ...       0.02
freq.    1058.37  E(vib)   ...       0.02
freq.    1160.28  E(vib)   ...       0.01
freq.    1211.73  E(vib)   ...       0.01
freq.    1279.18  E(vib)   ...       0.01
freq.    1387.60  E(vib)   ...       0.00
freq.    1460.20  E(vib)   ...       0.00
freq.    1467.04  E(vib)   ...       0.00
freq.    1467.17  E(vib)   ...       0.00
freq.    1482.11  E(vib)   ...       0.00
freq.    1487.28  E(vib)   ...       0.00
freq.    1669.80  E(vib)   ...       0.00
freq.    1769.39  E(vib)   ...       0.00
freq.    3038.65  E(vib)   ...       0.00
freq.    3040.90  E(vib)   ...       0.00
freq.    3119.17  E(vib)   ...       0.00
freq.    3133.78  E(vib)   ...       0.00
freq.    3161.32  E(vib)   ...       0.00
freq.    3167.79  E(vib)   ...       0.00
freq.    3706.53  E(vib)   ...       0.00
freq.    3902.09  E(vib)   ...       0.00

------------
INNER ENERGY
------------

The inner energy is: U= E(el) + E(ZPE) + E(vib) + E(rot) + E(trans)
    E(el)   - is the total energy from the electronic structure calculation
              = E(kin-el) + E(nuc-el) + E(el-el) + E(nuc-nuc)
    E(ZPE)  - the the zero temperature vibrational energy from the frequency calculation
    E(vib)  - the the finite temperature correction to E(ZPE) due to population
              of excited vibrational states
    E(rot)  - is the rotational thermal energy
    E(trans)- is the translational thermal energy

Summary of contributions to the inner energy U:
Electronic energy                ...   -344.76759695 Eh
Zero point energy                ...      0.11309799 Eh      70.97 kcal/mol
Thermal vibrational correction   ...      0.00602364 Eh       3.78 kcal/mol
Thermal rotational correction    ...      0.00141627 Eh       0.89 kcal/mol
Thermal translational correction ...      0.00141627 Eh       0.89 kcal/mol
-----------------------------------------------------------------------
Total thermal energy                   -344.64564277 Eh

Summary of corrections to the electronic energy:
(perhaps to be used in another calculation)
Total thermal correction                  0.00885619 Eh       5.56 kcal/mol
Non-thermal (ZPE) correction              0.11309799 Eh      70.97 kcal/mol
-----------------------------------------------------------------------
Total correction                          0.12195418 Eh      76.53 kcal/mol

--------
ENTHALPY
--------

The enthalpy is H = U + kB*T
                kB is Boltzmann's constant
Total free energy                 ...   -344.64564277 Eh
Thermal Enthalpy correction       ...      0.00094421 Eh       0.59 kcal/mol
-----------------------------------------------------------------------
Total Enthalpy                    ...   -344.64469857 Eh

Note: Only C1 symmetry has been detected, increase convergence thresholds
      if your molecule has a higher symmetry. Symmetry factor of 1.0 is
      used for the rotational entropy correction.

Note: Rotational entropy computed according to Herzberg
Infrared and Raman Spectra, Chapter V,1, Van Nostrand Reinhold, 1945
Point Group:  C1, Symmetry Number:   1
Rotational constants in cm-1:     0.173188     0.061839     0.046361

Vibrational entropy computed according to the QRRHO of S. Grimme
Chem.Eur.J. 2012 18 9955

-------
ENTROPY
-------

The entropy contributions are T*S = T*(S(el)+S(vib)+S(rot)+S(trans))
     S(el)   - electronic entropy
     S(vib)  - vibrational entropy
     S(rot)  - rotational entropy
     S(trans)- translational entropy
The entropies will be listed as multiplied by the temperature to get
units of energy

Electronic entropy                ...      0.00000000 Eh      0.00 kcal/mol
Vibrational entropy               ...      0.01118268 Eh      7.02 kcal/mol
Rotational entropy                ...      0.01310243 Eh      8.22 kcal/mol
Translational entropy             ...      0.01875460 Eh     11.77 kcal/mol
-----------------------------------------------------------------------
Final entropy term                ...      0.04303971 Eh     27.01 kcal/mol

In case the symmetry of your molecule has not been determined correctly
or in case you have a reason to use a different symmetry number we print
out the resulting rotational entropy values for sn=1,12 :
 --------------------------------------------------------
|  sn= 1 | S(rot)=       0.01310243 Eh      8.22 kcal/mol|
|  sn= 2 | S(rot)=       0.01244797 Eh      7.81 kcal/mol|
|  sn= 3 | S(rot)=       0.01206514 Eh      7.57 kcal/mol|
|  sn= 4 | S(rot)=       0.01179351 Eh      7.40 kcal/mol|
|  sn= 5 | S(rot)=       0.01158283 Eh      7.27 kcal/mol|
|  sn= 6 | S(rot)=       0.01141068 Eh      7.16 kcal/mol|
|  sn= 7 | S(rot)=       0.01126514 Eh      7.07 kcal/mol|
|  sn= 8 | S(rot)=       0.01113906 Eh      6.99 kcal/mol|
|  sn= 9 | S(rot)=       0.01102785 Eh      6.92 kcal/mol|
|  sn=10 | S(rot)=       0.01092837 Eh      6.86 kcal/mol|
|  sn=11 | S(rot)=       0.01083838 Eh      6.80 kcal/mol|
|  sn=12 | S(rot)=       0.01075623 Eh      6.75 kcal/mol|
 --------------------------------------------------------

-------------------
GIBBS FREE ENERGY
-------------------

The Gibbs free energy is G = H - T*S

Total enthalpy                    ...   -344.64469857 Eh
Total entropy correction          ...     -0.04303971 Eh    -27.01 kcal/mol
-----------------------------------------------------------------------
Final Gibbs free energy         ...   -344.68773827 Eh

For completeness - the Gibbs free energy minus the electronic energy
G-E(el)                           ...      0.07985868 Eh     50.11 kcal/mol

                             ****ORCA TERMINATED NORMALLY****
TOTAL RUN TIME: 0 days 0 hours 2 minutes 29 seconds 56 msec
