                         Program Version 5.0.4 -  RELEASE  -
|  1> !r2scan-3c Opt D4 NEB-TS Freq
|  2> %pal
|  3>  nprocs 32
|  4> end
|  5> %NEB
|  6>  NEB_end_XYZFile "product.xyz"
|  7> end
|  8> * XYZfile 0 1 reactant.xyz
|  9>
| 10>                          ****END OF INPUT****
 Total Charge           Charge          ....    0
 Multiplicity           Mult            ....    1
 Number of Electrons    NEL             ....   50
Dispersion correction           -0.003081749
FINAL SINGLE POINT ENERGY      -344.696266270578
Dispersion correction            ... Starting D4
Dispersion correction           -0.003079043
FINAL SINGLE POINT ENERGY      -344.696498171037
Dispersion correction            ... Starting D4
Dispersion correction           -0.003078805
FINAL SINGLE POINT ENERGY      -344.696682336144
Dispersion correction            ... Starting D4
FINAL SINGLE POINT ENERGY      -344.696843064492
FINAL SINGLE POINT ENERGY      -344.697043787298
FINAL SINGLE POINT ENERGY      -344.697254883744
FINAL SINGLE POINT ENERGY      -344.697370035354
FINAL SINGLE POINT ENERGY      -344.697376172236
FINAL SINGLE POINT ENERGY      -344.697382576476
FINAL SINGLE POINT ENERGY      -344.697385699162
FINAL SINGLE POINT ENERGY      -344.697393561957
FINAL SINGLE POINT ENERGY      -344.697401156215
FINAL SINGLE POINT ENERGY      -344.697408755347
FINAL SINGLE POINT ENERGY      -344.697416661800
FINAL SINGLE POINT ENERGY      -344.697427431580
FINAL SINGLE POINT ENERGY      -344.697439082703
FINAL SINGLE POINT ENERGY      -344.697452397315
Dispersion correction           -0.003085037
FINAL SINGLE POINT ENERGY      -344.697462027786
Dispersion correction            ... Starting D4

CARTESIAN COORDINATES (ANGSTROEM)
---------------------------------
  C     -1.877218   -0.309488    0.142334
  C     -0.640036    0.348912   -0.358205
  H     -1.789791   -0.578209    1.193671
  H     -2.046919   -1.207261   -0.458851
  H     -2.712623    0.381663    0.001838
  O      0.658917   -0.578977    0.447417
  C      1.816458   -0.706584   -0.375085
  H      1.961272    0.180842   -1.005515
  H      1.708373   -1.583186   -1.022684
  H      2.689772   -0.843531    0.271654
  O     -0.363975    0.777159   -1.432484
  O     -0.190259    1.441762    1.019456
  H      0.220432    2.194595    0.572002
  H      0.565599    0.482302    1.004453

Dispersion correction           -0.003085621
FINAL SINGLE POINT ENERGY      -344.697466228734
Dispersion correction            ... Starting D4
                    ***********************HURRAY********************
 Multiplicity           Mult            ....    1
 Number of Electrons    NEL             ....   50
 Basis Dimension        Dim             ....  169

ORBITAL ENERGIES
----------------

  NO   OCC          E(Eh)            E(eV)
   0   2.0000     -18.969116      -516.1759
   1   2.0000     -18.959030      -515.9014
   2   2.0000     -18.953763      -515.7581
   3   2.0000     -10.179849      -277.0078
   4   2.0000     -10.077143      -274.2130
   5   2.0000     -10.048673      -273.4383
   6   2.0000      -1.047616       -28.5071
   7   2.0000      -0.987633       -26.8749
   8   2.0000      -0.942421       -25.6446
   9   2.0000      -0.729682       -19.8557
  10   2.0000      -0.651514       -17.7286
  11   2.0000      -0.535552       -14.5731
  12   2.0000      -0.493397       -13.4260
  13   2.0000      -0.457167       -12.4401
  14   2.0000      -0.432551       -11.7703
  15   2.0000      -0.430975       -11.7274
  16   2.0000      -0.404140       -10.9972
  17   2.0000      -0.402124       -10.9424
  18   2.0000      -0.384361       -10.4590
  19   2.0000      -0.362887        -9.8746
  20   2.0000      -0.338361        -9.2073
  21   2.0000      -0.331217        -9.0129
  22   2.0000      -0.265548        -7.2259
  23   2.0000      -0.256477        -6.9791
  24   2.0000      -0.248857        -6.7717
  25   0.0000       0.005993         0.1631
  26   0.0000       0.015929         0.4334
  27   0.0000       0.058298         1.5864
  28   0.0000       0.103530         2.8172
  29   0.0000       0.115634         3.1466

-------
TIMINGS
-------

Dispersion correction           -0.003086000
FINAL SINGLE POINT ENERGY      -344.697468398731
                    ***********************HURRAY************************

DIPOLE MOMENT
-------------
                                X             Y             Z
Electronic contribution:     -0.87945       2.12580      -0.87166
Nuclear contribution   :      1.06552      -2.29267       1.01894
                        -----------------------------------------
Total Dipole Moment    :      0.18607      -0.16688       0.14728
                        -----------------------------------------
Magnitude (a.u.)       :      0.29011
Magnitude (Debye)      :      0.73739

Dispersion correction in the Hessian             ... Starting D4

VIBRATIONAL FREQUENCIES
-----------------------

Scaling factor for frequencies =  1.000000000  (already applied!)

   0:         0.00 cm**-1
   1:         0.00 cm**-1
   2:         0.00 cm**-1
   3:         0.00 cm**-1
   4:         0.00 cm**-1
   5:         0.00 cm**-1
   6:     -1063.74 cm**-1 ***imaginary mode***
   7:        11.27 cm**-1
   8:       133.95 cm**-1
   9:       199.71 cm**-1
  10:       228.46 cm**-1
  11:       286.55 cm**-1
  12:       338.99 cm**-1
  13:       379.06 cm**-1
  14:       432.10 cm**-1
  15:       523.56 cm**-1
  16:       603.75 cm**-1
  17:       649.22 cm**-1
  18:       722.04 cm**-1
  19:       860.55 cm**-1
  20:       986.69 cm**-1
  21:      1037.99 cm**-1
  22:      1086.15 cm**-1
  23:      1099.94 cm**-1
  24:      1173.00 cm**-1
  25:      1187.92 cm**-1
  26:      1389.18 cm**-1
  27:      1455.04 cm**-1
  28:      1460.32 cm**-1
  29:      1466.66 cm**-1
  30:      1479.94 cm**-1
  31:      1496.93 cm**-1
  32:      1530.36 cm**-1
  33:      1804.25 cm**-1
  34:      1896.57 cm**-1
  35:      2993.36 cm**-1
  36:      3043.86 cm**-1
  37:      3077.51 cm**-1
  38:      3095.51 cm**-1
  39:      3131.48 cm**-1
  40:      3171.42 cm**-1
  41:      3805.42 cm**-1

IR SPECTRUM
-----------

 Mode   freq       eps      Int      T**2         TX        TY        TZ
       cm**-1   L/(mol*cm) km/mol    a.u.
----------------------------------------------------------------------------
  7:     11.27   0.000109    0.55  0.003016  ( 0.045227 -0.019857  0.024011)
  8:    133.95   0.000155    0.79  0.000362  ( 0.002050 -0.018792 -0.002170)
  9:    199.71   0.000165    0.83  0.000258  ( 0.007012 -0.014135 -0.002984)
 10:    228.46   0.000117    0.59  0.000159  ( 0.001418  0.007593 -0.009979)
 11:    286.55   0.000053    0.27  0.000058  ( 0.003924 -0.000828 -0.006474)
 12:    338.99   0.007565   38.23  0.006965  ( 0.058792 -0.007300  0.058777)
 13:    379.06   0.009081   45.89  0.007476  (-0.001718  0.059984  0.062249)
 14:    432.10   0.031248  157.91  0.022567  ( 0.109584 -0.100381  0.021956)
 15:    523.56   0.030108  152.15  0.017946  ( 0.085893  0.048612  0.090580)
 16:    603.75   0.004189   21.17  0.002165  ( 0.043229 -0.003640  0.016835)
 17:    649.22   0.011100   56.09  0.005335  ( 0.019717 -0.041632 -0.056686)
 18:    722.04   0.134894  681.70  0.058301  (-0.098709  0.208670  0.070808)
 19:    860.55   0.015149   76.56  0.005493  (-0.060160  0.012864 -0.041338)
 20:    986.69   0.014158   71.55  0.004478  ( 0.060845 -0.001080  0.027831)
 21:   1037.99   0.033524  169.41  0.010079  ( 0.086046 -0.048017 -0.019209)
 22:   1086.15   0.043998  222.35  0.012641  ( 0.007855 -0.098749 -0.053180)
 23:   1099.94   0.011636   58.80  0.003301  ( 0.040443 -0.032863  0.024199)
 24:   1173.00   0.001951    9.86  0.000519  ( 0.017252 -0.013914 -0.005282)
 25:   1187.92   0.012156   61.43  0.003193  ( 0.031553 -0.043258 -0.018071)
 26:   1389.18   0.003853   19.47  0.000866  (-0.026871 -0.011979 -0.000154)
 27:   1455.04   0.000671    3.39  0.000144  ( 0.008688 -0.008266  0.000446)
 28:   1460.32   0.002201   11.12  0.000470  ( 0.010216  0.003605 -0.018787)
 29:   1466.66   0.000215    1.09  0.000046  ( 0.001266  0.006558  0.001057)
 30:   1479.94   0.002155   10.89  0.000454  ( 0.000062  0.020963  0.003874)
 31:   1496.93   0.002584   13.06  0.000539  (-0.000037  0.000336 -0.023209)
 32:   1530.36   0.008987   45.41  0.001833  (-0.028110  0.000481  0.032282)
 33:   1804.25   0.031139  157.36  0.005386  (-0.023110  0.001636 -0.069635)
 34:   1896.57   0.039477  199.50  0.006496  ( 0.005767  0.027259 -0.075626)
 35:   2993.36   0.008645   43.69  0.000901  (-0.027425  0.004368  0.011403)
 36:   3043.86   0.000413    2.09  0.000042  ( 0.005725  0.001813  0.002515)
 37:   3077.51   0.003122   15.78  0.000317  (-0.003812  0.017053 -0.003356)
 38:   3095.51   0.003166   16.00  0.000319  (-0.008486 -0.008024 -0.013519)
 39:   3131.48   0.000415    2.10  0.000041  (-0.003057  0.005315  0.001950)
 40:   3171.42   0.000265    1.34  0.000026  ( 0.000958  0.001656 -0.004736)
 41:   3805.42   0.010389   52.50  0.000852  (-0.007257 -0.028254  0.001011)

--------------------------
THERMOCHEMISTRY AT 298.15K
--------------------------

Temperature         ... 298.15 K
Pressure            ... 1.00 atm
Total Mass          ... 92.09 AMU

Throughout the following assumptions are being made:
  (1) The electronic state is orbitally nondegenerate
  (2) There are no thermally accessible electronically excited states
  (3) Hindered rotations indicated by low frequency modes are not
      treated as such but are treated as vibrations and this may
      cause some error
  (4) All equations used are the standard statistical mechanics
      equations for an ideal gas
  (5) All vibrations are strictly harmonic

freq.      11.27  E(vib)   ...       0.58
freq.     133.95  E(vib)   ...       0.42
freq.     199.71  E(vib)   ...       0.35
freq.     228.46  E(vib)   ...       0.32
freq.     286.55  E(vib)   ...       0.27
freq.     338.99  E(vib)   ...       0.23
freq.     379.06  E(vib)   ...       0.21
freq.     432.10  E(vib)   ...       0.18
freq.     523.56  E(vib)   ...       0.13
freq.     603.75  E(vib)   ...       0.10
freq.     649.22  E(vib)   ...       0.08
freq.     722.04  E(vib)   ...       0.07
freq.     860.55  E(vib)   ...       0.04
freq.     986.69  E(vib)   ...       0.02
freq.    1037.99  E(vib)   ...       0.02
freq.    1086.15  E(vib)   ...       0.02
freq.    1099.94  E(vib)   ...       0.02
freq.    1173.00  E(vib)   ...       0.01
freq.    1187.92  E(vib)   ...       0.01
freq.    1389.18  E(vib)   ...       0.00
freq.    1455.04  E(vib)   ...       0.00
freq.    1460.32  E(vib)   ...       0.00
freq.    1466.66  E(vib)   ...       0.00
freq.    1479.94  E(vib)   ...       0.00
freq.    1496.93  E(vib)   ...       0.00
freq.    1530.36  E(vib)   ...       0.00
freq.    1804.25  E(vib)   ...       0.00
freq.    1896.57  E(vib)   ...       0.00
freq.    2993.36  E(vib)   ...       0.00
freq.    3043.86  E(vib)   ...       0.00
freq.    3077.51  E(vib)   ...       0.00
freq.    3095.51  E(vib)   ...       0.00
freq.    3131.48  E(vib)   ...       0.00
freq.    3171.42  E(vib)   ...       0.00
freq.    3805.42  E(vib)   ...       0.00

------------
INNER ENERGY
------------

The inner energy is: U= E(el) + E(ZPE) + E(vib) + E(rot) + E(trans)
    E(el)   - is the total energy from the electronic structure calculation
              = E(kin-el) + E(nuc-el) + E(el-el) + E(nuc-nuc)
    E(ZPE)  - the the zero temperature vibrational energy from the frequency calculation
    E(vib)  - the the finite temperature correction to E(ZPE) due to population
              of excited vibrational states
    E(rot)  - is the rotational thermal energy
    E(trans)- is the translational thermal energy

Summary of contributions to the inner energy U:
Electronic energy                ...   -344.69746840 Eh
Zero point energy                ...      0.10989585 Eh      68.96 kcal/mol
Thermal vibrational correction   ...      0.00495681 Eh       3.11 kcal/mol
Thermal rotational correction    ...      0.00141627 Eh       0.89 kcal/mol
Thermal translational correction ...      0.00141627 Eh       0.89 kcal/mol
-----------------------------------------------------------------------
Total thermal energy                   -344.57978319 Eh

Summary of corrections to the electronic energy:
(perhaps to be used in another calculation)
Total thermal correction                  0.00778936 Eh       4.89 kcal/mol
Non-thermal (ZPE) correction              0.10989585 Eh      68.96 kcal/mol
-----------------------------------------------------------------------
Total correction                          0.11768520 Eh      73.85 kcal/mol

--------
ENTHALPY
--------

The enthalpy is H = U + kB*T
                kB is Boltzmann's constant
Total free energy                 ...   -344.57978319 Eh
Thermal Enthalpy correction       ...      0.00094421 Eh       0.59 kcal/mol
-----------------------------------------------------------------------
Total Enthalpy                    ...   -344.57883899 Eh

Note: Only C1 symmetry has been detected, increase convergence thresholds
      if your molecule has a higher symmetry. Symmetry factor of 1.0 is
      used for the rotational entropy correction.

Note: Rotational entropy computed according to Herzberg
Infrared and Raman Spectra, Chapter V,1, Van Nostrand Reinhold, 1945
Point Group:  C1, Symmetry Number:   1
Rotational constants in cm-1:     0.146863     0.090312     0.084661

Vibrational entropy computed according to the QRRHO of S. Grimme
Chem.Eur.J. 2012 18 9955

-------
ENTROPY
-------

The entropy contributions are T*S = T*(S(el)+S(vib)+S(rot)+S(trans))
     S(el)   - electronic entropy
     S(vib)  - vibrational entropy
     S(rot)  - rotational entropy
     S(trans)- translational entropy
The entropies will be listed as multiplied by the temperature to get
units of energy

Electronic entropy                ...      0.00000000 Eh      0.00 kcal/mol
Vibrational entropy               ...      0.00895629 Eh      5.62 kcal/mol
Rotational entropy                ...      0.01271717 Eh      7.98 kcal/mol
Translational entropy             ...      0.01875460 Eh     11.77 kcal/mol
-----------------------------------------------------------------------
Final entropy term                ...      0.04042806 Eh     25.37 kcal/mol

In case the symmetry of your molecule has not been determined correctly
or in case you have a reason to use a different symmetry number we print
out the resulting rotational entropy values for sn=1,12 :
 --------------------------------------------------------
|  sn= 1 | S(rot)=       0.01271717 Eh      7.98 kcal/mol|
|  sn= 2 | S(rot)=       0.01206272 Eh      7.57 kcal/mol|
|  sn= 3 | S(rot)=       0.01167989 Eh      7.33 kcal/mol|
|  sn= 4 | S(rot)=       0.01140826 Eh      7.16 kcal/mol|
|  sn= 5 | S(rot)=       0.01119757 Eh      7.03 kcal/mol|
|  sn= 6 | S(rot)=       0.01102543 Eh      6.92 kcal/mol|
|  sn= 7 | S(rot)=       0.01087988 Eh      6.83 kcal/mol|
|  sn= 8 | S(rot)=       0.01075381 Eh      6.75 kcal/mol|
|  sn= 9 | S(rot)=       0.01064260 Eh      6.68 kcal/mol|
|  sn=10 | S(rot)=       0.01054312 Eh      6.62 kcal/mol|
|  sn=11 | S(rot)=       0.01045313 Eh      6.56 kcal/mol|
|  sn=12 | S(rot)=       0.01037097 Eh      6.51 kcal/mol|
 --------------------------------------------------------

-------------------
GIBBS FREE ENERGY
-------------------

The Gibbs free energy is G = H - T*S

Total enthalpy                    ...   -344.57883899 Eh
Total entropy correction          ...     -0.04042806 Eh    -25.37 kcal/mol
-----------------------------------------------------------------------
Final Gibbs free energy         ...   -344.61926705 Eh

For completeness - the Gibbs free energy minus the electronic energy
G-E(el)                           ...      0.07820135 Eh     49.07 kcal/mol

                             ****ORCA TERMINATED NORMALLY****
TOTAL RUN TIME: 0 days 0 hours 26 minutes 28 seconds 767 msec
